23
 energy: -30.628452078962 gnorm: 0.000069877806 xtb: 6.7.1 (b14f90e)
C           -2.40463054930000        1.23404091060000       -0.74974879160000
C           -2.04081226850000        0.38786153010000        0.46704341240000
C           -0.52967172720000        0.41891344160000        0.75834068320000
C           -2.61078512400000       -1.02560674050000        0.32607446440000
C            0.36431859580000       -0.09637785050000       -0.37210402850000
C            1.84350643640000        0.16822583630000       -0.02906412150000
N            0.28260156010000       -1.57794933880000       -0.50026524750000
O            2.56425504510000       -0.77590114280000        0.18529133050000
O            2.16039756030000        1.42807265920000        0.00957611070000
H           -1.96889873850000        2.22657351380000       -0.67667864300000
H           -3.48307156210000        1.34638182470000       -0.80853883410000
H           -2.07538652510000        0.77305480310000       -1.67880078480000
H           -2.50824873670000        0.84498088610000        1.34391627800000
H           -2.40216186260000       -1.45555057170000       -0.65272674970000
H           -3.69326321590000       -0.98073633270000        0.41430511950000
H           -2.26051392990000       -1.68423777500000        1.12139259560000
H           -0.31744059630000       -0.14784263250000        1.66818614880000
H           -0.24602389440000        1.45547276800000        0.94657961400000
H            0.10956026620000        0.40428006320000       -1.30777463610000
H           -0.48289910530000       -1.94881662340000        0.08047022300000
H            1.23191357990000       -1.89459013830000       -0.14525888160000
H            0.16648442360000       -1.90338333450000       -1.46375049260000
H            3.09245849920000        1.58651096060000        0.24444291920000
