20
 energy: -34.602514769187 gnorm: 0.000366211217 xtb: 6.7.1 (d3f212b)
C           -0.00563879530000        0.62267753030000       -1.25657720550000
C           -0.93148446280000        1.07137663660000       -0.11730527840000
C           -2.06056074380000        0.11319466400000        0.17828251990000
O           -1.96093746440000       -1.09943291060000        0.06703266930000
O           -3.14855429190000        0.70645243570000        0.57261752010000
C            1.07705325720000       -0.39185259750000       -0.87113855870000
C            1.96333458830000        0.11185193090000        0.28804348180000
O            2.51179564360000        1.27248452760000        0.04676141520000
O            2.09350588340000       -0.55891962730000        1.27750914720000
N            0.52214096870000       -1.68712691290000       -0.41311415110000
H            1.73166804140000       -0.53999207070000       -1.73565837360000
H            0.50873822110000        1.50442444790000       -1.63985915820000
H           -0.60221043170000        0.20908809830000       -2.07150773550000
H           -1.37670314960000        2.03587796820000       -0.36282315640000
H           -0.37173585910000        1.20887653730000        0.81166473430000
H            3.09778816050000        1.57470562160000        0.76316811570000
H            0.68282447450000       -2.46047440120000       -1.05916250000000
H           -0.54606231950000       -1.58147992840000       -0.22968878030000
H            0.98835127630000       -1.88621958740000        0.49916832220000
H           -3.87418659300000        0.09249577190000        0.78659262030000
