26
 energy: -37.509510590498 gnorm: 0.000023398158 xtb: 6.7.1 (b14f90e)
C            2.97500420620000       -0.59223188580000        0.03015895780000
C            2.03809888690000       -1.60768401490000       -0.00389743330000
C            0.71064725340000       -1.23988295090000       -0.02855272640000
C            0.29807817010000        0.09479089190000       -0.02232832550000
C            1.23848603300000        1.10809509990000        0.01274587730000
C            2.59115881950000        0.75701622760000        0.03973405820000
O            3.56955929100000        1.66472877680000        0.07507200780000
C           -1.16344306550000        0.11331285830000       -0.05684481970000
C           -1.59562904190000       -1.15290307770000       -0.08131762210000
N           -0.47418712410000       -2.10371718670000       -0.06330439340000
C           -1.98915377820000        1.34805986520000       -0.05251281500000
C           -3.45387506950000        1.10435599140000       -0.42586453410000
N           -4.07044703050000        0.15513086130000        0.49114527830000
H            4.02895390590000       -0.81434389980000        0.05100635440000
H            2.34943613230000       -2.63991915000000       -0.00984426060000
H            0.93898403620000        2.14523979960000        0.02100038250000
H            3.23345067830000        2.57087142670000        0.07959203020000
H           -2.60666667130000       -1.51015259200000       -0.07641986900000
H           -0.52386440100000       -2.71946003950000        0.75930150150000
H           -1.55695899620000        2.07023810690000       -0.74791016530000
H           -1.93447651860000        1.78733532440000        0.94849020390000
H           -3.50226598870000        0.67373263930000       -1.42979222040000
H           -3.96431992520000        2.07836849040000       -0.45279808000000
H           -4.11469488760000        0.55028222690000        1.42557299040000
H           -5.02560751140000       -0.02923038400000        0.20359310350000
H           -0.48311960030000       -2.71032441550000       -0.89409593470000
