17
 energy: -31.424942883326 gnorm: 0.000014303755 xtb: 6.7.1 (b14f90e)
C            0.70731398800000        0.26818524140000        1.09748075300000
C           -0.65839597680000       -0.39720185690000        0.89757612850000
C           -1.54882814010000        0.35928082230000       -0.12295589880000
O           -2.13429518970000       -0.26201831460000       -0.96673479620000
O           -1.57688965370000        1.64811224960000        0.07694595720000
N           -0.54689359380000       -1.77115185930000        0.35194587610000
C            1.64100595700000        0.05993285650000       -0.08100965180000
O            2.46255001290000        1.05039710690000       -0.26661489160000
O            1.62236928360000       -0.95517187740000       -0.75275375370000
H           -1.20319986470000       -0.39730672310000        1.84832014830000
H            1.20688767460000       -0.15139180460000        1.97550242000000
H            0.57926020960000        1.33666649520000        1.27402690220000
H           -2.16581548610000        2.11844355760000       -0.54012528310000
H           -0.56204863660000       -2.51720114680000        1.04883504340000
H            0.36857725820000       -1.77969879780000       -0.21675329000000
H           -1.33426755410000       -1.87231207920000       -0.32673638940000
H            3.09669950910000        0.90382554770000       -0.99194010490000
