23
 energy: -30.597855506748 gnorm: 0.000220012312 xtb: 6.7.1 (b14f90e)
C           -1.92088245830000        1.50806432920000       -0.22574985200000
C           -1.99198497610000        0.13563500290000        0.44658063380000
C           -0.62778112520000       -0.36118397210000        0.94541811540000
C           -2.66539155060000       -0.88167228190000       -0.47004120270000
C            0.42173758110000       -0.64753651670000       -0.19769946570000
C            1.47864156970000        0.39296604700000       -0.11465852400000
N            1.00601142350000       -1.95349383440000       -0.23086007350000
O            2.68306516330000        0.02974191480000        0.06170147050000
O            1.21328193700000        1.65234462560000       -0.15189874690000
H           -2.92917172290000        1.84714794980000       -0.45166599170000
H           -1.39303834450000        1.46718863010000       -1.18059060250000
H           -1.48557608530000        2.25521838840000        0.43908045790000
H           -2.61205537160000        0.23938100920000        1.34304860120000
H           -2.13451839650000       -0.99696027760000       -1.41349338650000
H           -3.67580676700000       -0.55798813050000       -0.70194122620000
H           -2.72906235740000       -1.85318837990000        0.01226292760000
H           -0.77512790910000       -1.30677957810000        1.46937491100000
H           -0.22315095120000        0.34327826270000        1.67522106290000
H           -0.10117741280000       -0.50603329750000       -1.15626028070000
H            1.52597764540000       -2.19107778960000        0.60317683660000
H            0.32669826650000       -2.67489348490000       -0.42719287510000
H            0.26145571780000        1.88464252050000       -0.27415076330000
H            3.33940220260000        0.75314570450000        0.12898127370000
