25
 energy: -42.245257590290 gnorm: 0.000045212789 xtb: 6.7.1 (b14f90e)
N           -1.27243152814890        1.06656744385209        0.00007812248338
C           -1.84881057147717       -0.19200895396845        0.00019700578698
N           -0.96592112622070       -1.30061520257616        0.00021708932672
C            0.07550905697258        1.39868999849996       -0.00003129462741
C            0.90767188904573        0.20097032036948        0.00039805188674
C            0.35275169069542       -1.06727885663569        0.00008781233784
N            1.39371486263911       -1.95070754852193       -0.00045219830183
N            2.27033018090060        0.05222413169827        0.00000249215981
C            2.54167360727547       -1.23963174678611       -0.00049774167074
C            3.21895622357572        1.13579044974492        0.00080447157882
C           -1.51997700667550       -2.64088740696500        0.00001084805096
C           -2.23269748702053        2.16629192832774       -0.00022222825403
O            0.48639939639011        2.53204472436958       -0.00063539597425
O           -3.03278345421493       -0.36135665929065        0.00021938142030
H            3.52478305788749       -1.66969264758691       -0.00085366051288
H            3.84617336135963        1.08862945723968        0.89088869125965
H            2.67156518659867        2.07824145710644       -0.00613598201290
H            3.85679394600565        1.08076892808170       -0.88114930243044
H           -2.60502039418842       -2.54283156226038        0.00070913801534
H           -1.21187446378375       -3.18266805930777        0.89439514287230
H           -1.21299392561865       -3.18198595493232       -0.89518183036739
H           -2.86488621235314        2.10168319249660        0.88396817961597
H           -2.86467136483461        2.10143861548392       -0.88454930696956
H           -1.67729214119498        3.10027100728685       -0.00029302147704
H            1.32881415918510       -2.95928553882587       -0.00085903409634
