37
 energy: -63.141577167691 gnorm: 0.000032248965 xtb: 6.7.1 (b14f90e)
P           -1.38772810360000       -0.46779060150000        0.51079141650000
P            0.18100246010000        1.60051089990000       -0.11665897960000
P            1.30629374950000       -0.89125922580000        0.19625043120000
O           -2.14969305610000       -0.58619381340000       -1.34708662060000
O           -2.62225413040000       -1.04473605310000        1.22698613640000
O           -0.14213118560000        1.58663133800000       -1.67942303730000
O            0.45281350910000        3.09896583810000        0.20783792470000
O            1.75041868420000       -1.39560545770000       -1.22969222650000
O            2.30199693350000       -1.60824895100000        1.16899107040000
N           -1.23948071810000        1.10338838620000        0.54197495760000
N           -0.20750874660000       -1.49739877130000        0.49464706600000
N            1.45950060740000        0.70247663570000        0.26667004850000
C           -2.01918312530000       -1.80727870480000       -2.08319290480000
C           -3.78488046180000       -0.24943293020000        1.51219758980000
C            0.89890810470000        1.97692286900000       -2.58906591980000
C            1.04949251580000        3.50367756960000        1.44517055020000
C            1.94838120320000       -2.79797567730000       -1.46653140200000
C            2.21388355330000       -1.43040289100000        2.58330883100000
H           -2.71563674720000       -1.79164732500000       -2.92263156060000
H           -2.28043255000000       -2.61469943240000       -1.40080199760000
H           -0.99846257560000       -1.95208182850000       -2.43844009540000
H           -4.09086343580000       -0.48941498740000        2.52932353140000
H           -4.57643229630000       -0.52205646990000        0.81506284480000
H           -3.55531099100000        0.81127367080000        1.42517455750000
H            1.79334460540000        1.37995827360000       -2.40538935040000
H            1.12829301600000        3.03371504630000       -2.46432972200000
H            0.51651869970000        1.79408344870000       -3.59168120350000
H            0.31031129940000        3.47360350410000        2.24519448990000
H            1.39321216020000        4.52569697770000        1.29316939030000
H            1.88963425730000        2.85326022500000        1.68626530480000
H            2.87581265380000       -3.12508792030000       -1.00008646100000
H            2.01304767290000       -2.91823942900000       -2.54683249720000
H            1.11541979610000       -3.37348101460000       -1.06320718250000
H            1.23975963230000       -1.76051611620000        2.94620650740000
H            2.37115755870000       -0.38395515830000        2.84451054570000
H            3.00299137450000       -2.04588704620000        3.01248857910000
H           -1.82961682490000        0.17870127150000       -1.86120824060000
