21
 energy: -32.844090565985 gnorm: 0.000100468403 xtb: 6.7.1 (b14f90e)
O            3.85858518280000       -0.35988858870000        0.00067021750000
O           -2.50659502780000       -1.36755557010000        0.00066787280000
N           -1.57840583590000        0.70994238960000       -0.00061618810000
C           -0.24247388620000        0.38453574350000       -0.00047573980000
C            0.71052181840000        1.43962645470000       -0.00015394820000
C            0.22573092180000       -0.90994290310000       -0.00086144390000
C            2.06884860490000        1.22051814940000        0.00021930040000
C            1.65680423150000       -1.21781262380000       -0.00052649300000
C            2.58338077410000       -0.07500776770000        0.00014137200000
C           -2.65932799950000       -0.17615046220000        0.00011970600000
C           -3.97840365310000        0.53334940310000        0.00046387090000
H            0.35199730660000        2.46009877950000        0.00005143460000
H           -0.47388008990000       -1.73386778790000       -0.00142680240000
H           -1.80320401860000        1.69593180210000       -0.00082576420000
H            2.74388929670000        2.06519273910000        0.00086527670000
H            1.88964390750000       -1.87777150400000        0.84950768500000
H           -4.77851920530000       -0.20118963850000        0.00142270350000
H           -4.07301689810000        1.16050317300000       -0.88395354220000
H           -4.07214695190000        1.16178041970000        0.88405399930000
H            4.44804642120000        0.41240927420000        0.00127509970000
H            1.89031050120000       -1.87716045460000       -0.85085684370000
