25
 energy: -42.208994672231 gnorm: 0.000046970187 xtb: 6.7.1 (b14f90e)
N           -1.20946553290000        1.11893311090000        0.02501974100000
C           -1.84556547310000       -0.11490481570000        0.17603184960000
N           -1.01082141390000       -1.26428040500000        0.09435588990000
C            0.13795672300000        1.34911985040000       -0.04178400640000
C            0.92354805350000        0.15522002220000        0.54795744180000
C            0.30127812060000       -1.12831772560000        0.10223270340000
N            1.21878421320000       -1.95770048880000       -0.36018530390000
N            2.29009409200000       -0.06274695240000        0.14509986490000
C            2.37121618010000       -1.29099033100000       -0.32558427650000
C            3.32300149670000        0.92044328030000        0.28442789010000
C           -1.65825465640000       -2.53256471700000       -0.18890349200000
C           -2.10840702970000        2.24080237730000       -0.25156624250000
O            0.66048097240000        2.35317818360000       -0.42165045350000
O           -3.02712230880000       -0.22611472580000        0.26562563510000
H            3.28494707510000       -1.73303488670000       -0.68309129360000
H            3.52783548100000        1.11252227270000        1.33957830790000
H            2.99401283010000        1.85428319650000       -0.17739598520000
H            4.23200643250000        0.56961799640000       -0.19820118240000
H           -2.32689418420000       -2.78322407430000        0.63449529560000
H           -0.88941382970000       -3.29112641090000       -0.30450436790000
H           -2.25122177780000       -2.45416382300000       -1.09959730140000
H           -2.55499844380000        2.13594085030000       -1.23949316330000
H           -1.53291759660000        3.16143899140000       -0.20538834840000
H           -2.90077590300000        2.24868666170000        0.49449476350000
H            0.86115919830000        0.29272229160000        1.63741826230000
