27
 energy: -34.496649852897 gnorm: 0.000047189409 xtb: 6.7.1 (b14f90e)
C           -1.46411748545793        1.29629889376807       -0.94403129741897
C           -2.67848711782515        1.36237917548468       -0.00567327402545
C           -2.95139411152741       -0.09680349943182        0.32944886914550
C           -0.80485333896326       -0.07496594223696       -0.68344298993900
N           -1.59026660594566       -0.66527217157118        0.45734950037839
C           -1.53553795650508       -2.12929711359923        0.52197702153329
C            0.65580361776627       -0.00449504596590       -0.33235326507828
C            1.62583562883021       -0.62312254836829       -1.11536533170109
C            1.08772902711167        0.69352398009000        0.79480004701278
C            2.95555678321666       -0.51932789733337       -0.74378470767312
C            3.26631543176788        0.19280439712067        0.40823261296162
N            2.35011246738218        0.78038349575285        1.15624233664115
H           -3.53449410880082        1.83758047568137       -0.47684582392585
H           -2.44182909207751        1.92292718314868        0.89903450389013
H           -0.76911439557523        2.11118582691759       -0.75082673419569
H           -1.77168217510809        1.36771090860154       -1.98534599509650
H           -3.45855337197737       -0.60174622552253       -0.49491119004668
H           -3.52434430821792       -0.23930706921318        1.24485854853825
H           -0.50044585083329       -2.45977327745862        0.59523031639685
H           -1.98206033684598       -2.55490950081478       -0.37546691313923
H           -2.08375992997062       -2.48812340951895        1.39129740309765
H           -0.94598282379511       -0.73483849469387       -1.54437108869064
H            1.34415021614272       -1.16917340215401       -2.00427176695926
H            3.73118369670936       -0.98088899884774       -1.33221005522116
H            0.39325702193793        1.22086187406667        1.44105484009258
H            4.28631618149065        0.30079517142300        0.74730612114286
H           -1.17006016182910       -0.28767428772469        1.31563907547987
