29
 energy: -36.981671453377 gnorm: 0.000060730784 xtb: 6.7.1 (b14f90e)
C            0.67276320980000       -2.69976924490000       -0.15977596170000
C            0.34393819500000       -1.21067003220000       -0.25498645680000
C           -1.06447334980000       -0.98292844700000        0.32199988100000
N           -1.74297864230000        0.32964107580000        0.08733310090000
C           -1.16611071660000        1.39444244210000        0.92920131190000
C           -1.66587016410000        0.73799313170000       -1.32963895280000
C           -3.16285172940000        0.16212512690000        0.45992120030000
O            1.34716531480000       -0.50845096360000        0.48029479760000
C            1.91819113530000        0.56932746020000       -0.09456599490000
O            1.45349592870000        1.08286238080000       -1.08202993460000
C            3.12400604070000        1.02133316350000        0.65481923300000
H            0.59984993210000       -3.04056670060000        0.86911399880000
H            1.69029407500000       -2.86681767060000       -0.50080069460000
H            0.00134077110000       -3.28247697550000       -0.78270439090000
H            0.39754177770000       -0.88937685880000       -1.30170329490000
H           -1.01191829060000       -1.14471498740000        1.40143363590000
H           -1.70094107450000       -1.75688185340000       -0.11134203270000
H           -1.17529922290000        1.09820779090000        1.97655443480000
H           -1.74755018990000        2.30798412330000        0.81721949120000
H           -0.14493917180000        1.60847416210000        0.62840671900000
H           -0.64296376770000        1.01174169750000       -1.59292972440000
H           -2.30202732520000        1.60525124490000       -1.49513706100000
H           -2.00309144340000       -0.07191583240000       -1.97357669840000
H           -3.24794403370000       -0.17776884040000        1.49075195740000
H           -3.64392934270000       -0.56573436320000       -0.19113054560000
H           -3.68859220290000        1.11043792240000        0.36334735490000
H            4.00198965160000        0.58859222460000        0.17579886150000
H            3.08780626390000        0.67746509180000        1.68382084520000
H            3.21649213680000        2.10263824070000        0.60133804490000
