25
 energy: -42.238694197721 gnorm: 0.000144791078 xtb: 6.7.1 (b14f90e)
N           -1.25586464663880        1.06071159876847        0.00013627177159
C           -1.74490639364276       -0.18908631413447        0.00015925723161
N           -0.96780455997635       -1.26681150612136        0.00002688771434
C            0.15468361770517        1.39811446570601       -0.00021309015554
C            0.94516446005629        0.21129787662101        0.00019040468903
C            0.39053384664144       -1.07007649296055        0.00001951017393
N            1.34988703767548       -2.00328014091809       -0.00035594288298
N            2.29970956967646        0.01100555128053       -0.00013263257204
C            2.47855832783152       -1.32268870116102       -0.00036464449780
C            3.31814136287838        1.02789957308508        0.00096615936320
C           -1.51794910664321       -2.60844848166916       -0.00004675814964
C           -2.17696429089906        2.19133500151899        0.00013226688067
O            0.49618889855188        2.54790606814678       -0.00087934494188
O           -3.03656353916315       -0.42237628852857        0.00027130619491
H            3.44357441465156       -1.78923922441627       -0.00070041338908
H            3.93825465787117        0.93671115553637        0.89315564804771
H            2.84394687199607        2.00726531629058       -0.00974480273318
H            3.95293726889964        0.92362993376393       -0.87925135926618
H           -2.13334410780562       -2.76186466209576       -0.88562627122300
H           -2.13224352968932       -2.76232717813637        0.88623189824165
H           -0.67965276273242       -3.30093102368129       -0.00069323624929
H           -2.79316310094866        2.19879860815221        0.90040086322697
H           -2.79310318143829        2.19871182333536       -0.90017526151044
H           -1.56121460089834        3.09247297756448        0.00006357503505
H           -3.58896900865910        0.37616023225313        0.00029555650038
